# vtk DataFile Version 3.1 
output from mmail
ASCII
DATASET UNSTRUCTURED_GRID
POINTS 18167 FLOAT 
0 0  0
300 0  0
752 0  0
1052 0  0
0 200  0
300 200  0
752 200  0
1052 200  0
0 300  0
300 300  0
752 300  0
1052 300  0
0 499  0
300 499  0
752 499  0
1052 499  0
150 100  0
526 100  0
902 100  0
150 250  0
526 250  0
902 250  0
150 399.5  0
526 399.5  0
902 399.5  0
150 0  0
526 0  0
0 100  0
902 0  0
300 100  0
752 100  0
150 200  0
1052 100  0
526 200  0
0 250  0
902 200  0
300 250  0
752 250  0
150 300  0
1052 250  0
526 300  0
0 399.5  0
902 300  0
300 399.5  0
752 399.5  0
150 499  0
1052 399.5  0
526 499  0
902 499  0
75 50  0
225 50  0
225 150  0
75 150  0
413 50  0
639 50  0
639 150  0
413 150  0
827 50  0
977 50  0
977 150  0
827 150  0
75 225  0
225 225  0
225 275  0
75 275  0
413 225  0
639 225  0
639 275  0
413 275  0
827 225  0
977 225  0
977 275  0
827 275  0
75 349.75  0
225 349.75  0
225 449.25  0
75 449.25  0
413 349.75  0
639 349.75  0
639 449.25  0
413 449.25  0
827 349.75  0
977 349.75  0
977 449.25  0
827 449.25  0
75 0  0
225 0  0
0 50  0
413 0  0
639 0  0
300 50  0
827 0  0
0 150  0
977 0  0
752 50  0
300 150  0
75 200  0
1052 50  0
225 200  0
752 150  0
413 200  0
0 225  0
639 200  0
1052 150  0
150 50  0
827 200  0
300 225  0
977 200  0
0 275  0
75 100  0
526 50  0
752 225  0
225 100  0
300 275  0
413 100  0
902 50  0
75 300  0
1052 225  0
150 150  0
639 100  0
225 300  0
752 275  0
827 100  0
413 300  0
0 349.75  0
526 150  0
977 100  0
150 225  0
639 300  0
1052 275  0
827 300  0
300 349.75  0
902 150  0
75 250  0
526 225  0
977 300  0
0 449.25  0
752 349.75  0
225 250  0
413 250  0
902 225  0
300 449.25  0
150 275  0
639 250  0
75 499  0
1052 349.75  0
827 250  0
225 499  0
752 449.25  0
526 275  0
977 250  0
150 349.75  0
413 499  0
639 499  0
1052 449.25  0
827 499  0
902 275  0
75 399.5  0
526 349.75  0
977 499  0
225 399.5  0
413 399.5  0
902 349.75  0
150 449.25  0
639 399.5  0
827 399.5  0
526 449.25  0
977 399.5  0
902 449.25  0
37.5 25  0
112.5 25  0
112.5 75  0
37.5 75  0
187.5 25  0
262.5 25  0
262.5 75  0
187.5 75  0
187.5 125  0
262.5 125  0
262.5 175  0
187.5 175  0
37.5 125  0
112.5 125  0
112.5 175  0
37.5 175  0
356.5 25  0
469.5 25  0
469.5 75  0
356.5 75  0
582.5 25  0
695.5 25  0
695.5 75  0
582.5 75  0
582.5 125  0
695.5 125  0
695.5 175  0
582.5 175  0
356.5 125  0
469.5 125  0
469.5 175  0
356.5 175  0
789.5 25  0
864.5 25  0
864.5 75  0
789.5 75  0
939.5 25  0
1014.5 25  0
1014.5 75  0
939.5 75  0
939.5 125  0
1014.5 125  0
1014.5 175  0
939.5 175  0
789.5 125  0
864.5 125  0
864.5 175  0
789.5 175  0
37.5 212.5  0
112.5 212.5  0
112.5 237.5  0
37.5 237.5  0
187.5 212.5  0
262.5 212.5  0
262.5 237.5  0
187.5 237.5  0
187.5 262.5  0
262.5 262.5  0
262.5 287.5  0
187.5 287.5  0
37.5 262.5  0
112.5 262.5  0
112.5 287.5  0
37.5 287.5  0
356.5 212.5  0
469.5 212.5  0
469.5 237.5  0
356.5 237.5  0
582.5 212.5  0
695.5 212.5  0
695.5 237.5  0
582.5 237.5  0
582.5 262.5  0
695.5 262.5  0
695.5 287.5  0
582.5 287.5  0
356.5 262.5  0
469.5 262.5  0
469.5 287.5  0
356.5 287.5  0
789.5 212.5  0
864.5 212.5  0
864.5 237.5  0
789.5 237.5  0
939.5 212.5  0
1014.5 212.5  0
1014.5 237.5  0
939.5 237.5  0
939.5 262.5  0
1014.5 262.5  0
1014.5 287.5  0
939.5 287.5  0
789.5 262.5  0
864.5 262.5  0
864.5 287.5  0
789.5 287.5  0
37.5 324.875  0
112.5 324.875  0
112.5 374.625  0
37.5 374.625  0
187.5 324.875  0
262.5 324.875  0
262.5 374.625  0
187.5 374.625  0
187.5 424.375  0
262.5 424.375  0
262.5 474.125  0
187.5 474.125  0
37.5 424.375  0
112.5 424.375  0
112.5 474.125  0
37.5 474.125  0
356.5 324.875  0
469.5 324.875  0
469.5 374.625  0
356.5 374.625  0
582.5 324.875  0
695.5 324.875  0
695.5 374.625  0
582.5 374.625  0
582.5 424.375  0
695.5 424.375  0
695.5 474.125  0
582.5 474.125  0
356.5 424.375  0
469.5 424.375  0
469.5 474.125  0
356.5 474.125  0
789.5 324.875  0
864.5 324.875  0
864.5 374.625  0
789.5 374.625  0
939.5 324.875  0
1014.5 324.875  0
1014.5 374.625  0
939.5 374.625  0
939.5 424.375  0
1014.5 424.375  0
1014.5 474.125  0
939.5 474.125  0
789.5 424.375  0
864.5 424.375  0
864.5 474.125  0
789.5 474.125  0
37.5 0  0
262.5 0  0
0 25  0
356.5 0  0
695.5 0  0
300 25  0
789.5 0  0
1014.5 0  0
752 25  0
0 175  0
1052 25  0
37.5 200  0
300 175  0
262.5 200  0
0 212.5  0
356.5 200  0
752 175  0
695.5 200  0
1052 175  0
112.5 0  0
300 212.5  0
789.5 200  0
187.5 0  0
1014.5 200  0
469.5 0  0
0 75  0
582.5 0  0
0 287.5  0
752 212.5  0
864.5 0  0
0 125  0
300 75  0
150 75  0
939.5 0  0
300 287.5  0
1052 212.5  0
37.5 300  0
752 75  0
300 125  0
112.5 100  0
526 75  0
112.5 200  0
187.5 100  0
262.5 300  0
1052 75  0
752 125  0
187.5 200  0
150 25  0
752 287.5  0
469.5 100  0
356.5 300  0
0 324.875  0
902 75  0
469.5 200  0
150 125  0
75 25  0
0 237.5  0
1052 125  0
582.5 200  0
582.5 100  0
526 25  0
225 25  0
37.5 100  0
37.5 50  0
695.5 300  0
864.5 200  0
864.5 100  0
262.5 50  0
1052 287.5  0
789.5 300  0
300 324.875  0
413 25  0
262.5 100  0
0 262.5  0
300 237.5  0
939.5 200  0
526 125  0
902 25  0
639 25  0
356.5 100  0
356.5 50  0
939.5 100  0
37.5 150  0
150 237.5  0
262.5 150  0
1014.5 300  0
752 324.875  0
752 237.5  0
827 25  0
695.5 50  0
75 175  0
0 474.125  0
300 262.5  0
695.5 100  0
150 175  0
225 175  0
902 125  0
977 25  0
789.5 50  0
356.5 150  0
112.5 250  0
789.5 100  0
112.5 50  0
526 237.5  0
112.5 300  0
695.5 150  0
187.5 50  0
300 474.125  0
1014.5 50  0
1052 237.5  0
413 175  0
37.5 499  0
1052 324.875  0
187.5 250  0
75 212.5  0
639 175  0
752 262.5  0
187.5 300  0
150 212.5  0
1014.5 100  0
526 175  0
75 75  0
469.5 250  0
789.5 150  0
225 212.5  0
262.5 499  0
902 237.5  0
150 262.5  0
75 125  0
37.5 225  0
1014.5 150  0
225 75  0
752 474.125  0
469.5 300  0
582.5 250  0
469.5 50  0
225 125  0
582.5 50  0
413 212.5  0
827 175  0
0 374.625  0
356.5 499  0
977 175  0
864.5 250  0
526 212.5  0
37.5 250  0
902 175  0
413 75  0
695.5 499  0
582.5 300  0
639 212.5  0
262.5 225  0
1052 262.5  0
526 262.5  0
187.5 150  0
1052 474.125  0
789.5 499  0
413 125  0
112.5 150  0
356.5 225  0
939.5 250  0
37.5 275  0
864.5 50  0
864.5 300  0
939.5 50  0
639 75  0
150 374.625  0
827 212.5  0
262.5 250  0
639 125  0
300 374.625  0
1014.5 499  0
902 212.5  0
356.5 250  0
262.5 275  0
977 212.5  0
695.5 225  0
902 262.5  0
939.5 300  0
0 424.375  0
827 75  0
112.5 399.5  0
789.5 225  0
695.5 250  0
75 287.5  0
150 287.5  0
582.5 150  0
356.5 275  0
469.5 150  0
526 374.625  0
752 374.625  0
827 125  0
187.5 399.5  0
789.5 250  0
225 287.5  0
977 75  0
300 424.375  0
469.5 399.5  0
977 125  0
150 424.375  0
902 374.625  0
1014.5 225  0
582.5 399.5  0
695.5 275  0
112.5 225  0
526 287.5  0
187.5 225  0
1014.5 250  0
75 324.875  0
150 324.875  0
112.5 499  0
526 424.375  0
864.5 399.5  0
413 287.5  0
939.5 150  0
1052 374.625  0
939.5 399.5  0
864.5 150  0
187.5 499  0
752 424.375  0
902 424.375  0
789.5 275  0
75 237.5  0
225 324.875  0
639 287.5  0
75 262.5  0
37.5 349.75  0
902 287.5  0
37.5 399.5  0
526 324.875  0
469.5 225  0
469.5 499  0
582.5 225  0
225 237.5  0
1014.5 275  0
413 324.875  0
582.5 499  0
1052 424.375  0
225 262.5  0
827 287.5  0
262.5 399.5  0
864.5 499  0
413 237.5  0
356.5 399.5  0
902 324.875  0
187.5 275  0
262.5 349.75  0
112.5 275  0
977 287.5  0
639 324.875  0
413 262.5  0
939.5 499  0
150 474.125  0
356.5 349.75  0
695.5 399.5  0
864.5 225  0
639 237.5  0
789.5 399.5  0
939.5 225  0
639 262.5  0
827 324.875  0
37.5 449.25  0
526 474.125  0
1014.5 399.5  0
827 237.5  0
695.5 349.75  0
582.5 275  0
262.5 449.25  0
902 474.125  0
469.5 275  0
977 324.875  0
827 262.5  0
789.5 349.75  0
977 237.5  0
75 474.125  0
977 262.5  0
356.5 449.25  0
225 474.125  0
112.5 349.75  0
187.5 349.75  0
939.5 275  0
695.5 449.25  0
1014.5 349.75  0
864.5 275  0
75 374.625  0
639 474.125  0
413 474.125  0
789.5 449.25  0
75 424.375  0
225 374.625  0
225 424.375  0
469.5 349.75  0
582.5 349.75  0
1014.5 449.25  0
187.5 449.25  0
413 374.625  0
112.5 449.25  0
827 474.125  0
413 424.375  0
639 374.625  0
977 474.125  0
639 424.375  0
864.5 349.75  0
939.5 349.75  0
582.5 449.25  0
469.5 449.25  0
827 374.625  0
977 374.625  0
827 424.375  0
977 424.375  0
939.5 449.25  0
864.5 449.25  0
168.75 12.5  0
206.25 12.5  0
206.25 37.5  0
168.75 37.5  0
243.75 12.5  0
281.25 12.5  0
281.25 37.5  0
243.75 37.5  0
243.75 62.5  0
281.25 62.5  0
281.25 87.5  0
243.75 87.5  0
168.75 62.5  0
206.25 62.5  0
206.25 87.5  0
168.75 87.5  0
168.75 112.5  0
206.25 112.5  0
206.25 137.5  0
168.75 137.5  0
243.75 112.5  0
281.25 112.5  0
281.25 137.5  0
243.75 137.5  0
243.75 162.5  0
281.25 162.5  0
281.25 187.5  0
243.75 187.5  0
168.75 162.5  0
206.25 162.5  0
206.25 187.5  0
168.75 187.5  0
93.75 162.5  0
131.25 162.5  0
131.25 187.5  0
93.75 187.5  0
18.75 162.5  0
56.25 162.5  0
56.25 187.5  0
18.75 187.5  0
328.25 12.5  0
384.75 12.5  0
384.75 37.5  0
328.25 37.5  0
441.25 12.5  0
497.75 12.5  0
497.75 37.5  0
441.25 37.5  0
441.25 62.5  0
497.75 62.5  0
497.75 87.5  0
441.25 87.5  0
328.25 62.5  0
384.75 62.5  0
384.75 87.5  0
328.25 87.5  0
554.25 12.5  0
610.75 12.5  0
610.75 37.5  0
554.25 37.5  0
667.25 12.5  0
723.75 12.5  0
723.75 37.5  0
667.25 37.5  0
667.25 62.5  0
723.75 62.5  0
723.75 87.5  0
667.25 87.5  0
554.25 62.5  0
610.75 62.5  0
610.75 87.5  0
554.25 87.5  0
554.25 112.5  0
610.75 112.5  0
610.75 137.5  0
554.25 137.5  0
667.25 112.5  0
723.75 112.5  0
723.75 137.5  0
667.25 137.5  0
667.25 162.5  0
723.75 162.5  0
723.75 187.5  0
667.25 187.5  0
554.25 162.5  0
610.75 162.5  0
610.75 187.5  0
554.25 187.5  0
328.25 112.5  0
384.75 112.5  0
384.75 137.5  0
328.25 137.5  0
441.25 112.5  0
497.75 112.5  0
497.75 137.5  0
441.25 137.5  0
441.25 162.5  0
497.75 162.5  0
497.75 187.5  0
441.25 187.5  0
328.25 162.5  0
384.75 162.5  0
384.75 187.5  0
328.25 187.5  0
770.75 12.5  0
808.25 12.5  0
808.25 37.5  0
770.75 37.5  0
845.75 12.5  0
883.25 12.5  0
883.25 37.5  0
845.75 37.5  0
845.75 62.5  0
883.25 62.5  0
883.25 87.5  0
845.75 87.5  0
[...]
POINT_DATA 18167
SCALARS U000 float 
LOOKUP_TABLE default
6353.59
5995.47
3284.45
0.00287163
6443.51
6246.37
3554.86
0.0115899
6459.38
6357.98
3705.45
-0.0532433
6403.8
6102.19
3431.79
0.00330755
6329.28
5086.98
1799.55
6582.77
5418.15
2076.84
6391.3
5224.28
1898.23
6279.49
5012.68
6381.22
1748.85
6057.92
3351.29
6495.65
0.0263197
5326.35
6465.43
1972.73
6367.08
3682.39
6522.46
-0.0768609
5431.27
6422.47
2078.64
6168.53
3515.32
6349.84
0.0265142
5152.14
1840.9
6346.52
6185.22
6307.19
6410.97
5610.22
4258.96
4401.92
5746.27
2567.14
896.189
952.625
2699.28
6466.84
6468.27
6489.84
6475.41
5926.48
4596.25
4668.45
6003.65
2884.49
1035.43
1068.97
2969.4
6444.34
6389.29
6271.71
6399.15
5886.82
4556.34
4409.39
5739.3
2846.07
1010.48
945.503
2696.86
6337.52
6171.21
6359.62
5593.44
4241.48
6010.69
2552.06
6416
889.69
3300.74
6137.55
6452.02
0.0249788
6427.69
3436.8
5860.5
6457.58
4523.67
0.0232353
6292.88
2818.85
6308.59
1004.22
6465.77
6372.17
5030.84
3623.53
6229.8
6380.5
5661.37
1760.86
6468.7
-0.067798
6391.28
4312.39
6474.31
3707.31
2615.18
5996.85
6442.1
5184.05
916.859
6546.85
4657.17
-0.0687867
2954
6255.26
1869.24
6474.92
5386.21
1058.98
6407.99
3630.05
6487.99
5982.73
2027.84
6118.27
6560.9
4654.02
6392.34
-0.000199604
2948.37
6257.83
3451.68
5449.45
1064.56
6445.72
5721.57
4391.1
0.0284954
2678.92
2103.16
6417.64
5314.42
938.064
6315.12
5793.81
1975.9
6359.5
4465
2753.5
5169.95
969.242
1854.57
6352.47
6317.89
6338.24
6367.2
6236.82
6095.49
6125.81
6263.68
6319.53
6188.63
6287.91
6406.68
6395.51
6379.06
6438.44
6429.35
5819.66
5330.72
5366.68
5852.01
4655.25
3789.69
3824.1
4691.81
4766.73
3893.7
3997.86
4879.64
5916.72
5440.22
5554.23
6011.91
2931.29
2161.92
2190.84
2963.83
1327.09
447.579
454.401
1346.79
1388.34
468.487
489.724
1454.08
3030.75
2252.66
2358.61
3132.43
6450.92
6483.06
6501.86
6460.45
6483.18
6382.56
6428.44
6518.39
6546.59
6462.62
6460.34
6547.87
6464.42
6506.14
6495.65
6462.61
6101.18
5671.04
5729.02
6167.23
4984.28
4100.29
4177.86
5034.1
5067.83
4209.11
4213.63
5071.13
6198.73
5739.22
5745.73
6203.79
3230.75
2468.82
2519
3305.07
1522.2
508.007
519.791
1577.82
1601.29
526.26
526.04
1593.33
3335.22
2549.39
2549.82
3343.87
6452.33
6468.47
6426.32
6431.83
6475.48
6391.71
6288.04
6390.55
6338.6
6223.59
6192.54
6313.32
6413.27
6394.47
6377.94
6403.03
6147.25
5687.5
5575.1
6044.8
5017.78
4165.08
4057.74
4908.69
4836.14
3980.78
3941.94
4799.98
5974.03
5501.41
5465.11
5939.1
3313.06
2482.06
2374.51
3199.23
1553.3
515.862
495.625
1469.14
1420.98
479.947
472.178
1398.48
3111.7
2306.36
2273.28
3071.37
6351.88
6092.03
6354.41
5815.81
3785.6
5999.1
2927.57
446.803
3288.34
6429.02
0.0212423
6444.49
6188.97
6360.77
6451.1
6069.89
3491.95
4063.63
0.0150353
6315.85
6276.74
3195.81
6233.72
502.433
5326.46
6368.73
4650.91
6464.22
3588.47
2158.66
6396.14
6030.27
6307.87
1324.87
6368.93
0.208891
6460.18
3321.7
6093.7
6356.32
5054.03
6470.14
6287.95
6443.05
0.025969
3389.56
6458.86
6283.84
3709.66
5398.61
6193.12
6451.46
1776.68
5628.28
6356.96
6340.03
6462.44
0.0258519
4957.21
4724.23
5017.05
6174.51
6379.99
6357.84
4205.57
2438.32
2217.27
6106.7
-0.0642821
3341.4
6314.55
5597.49
6153.05
6466.5
6343.39
1496.82
5130.29
1751.67
4245.7
5880.37
5831.78
1364.68
6412.46
6571.33
6233.25
523.825
3676.09
3658.65
2555.6
3802.56
6432.83
6404.39
6381.31
3854.41
6434.47
6360.67
1830.11
891.217
2943.33
5960.87
6506.15
2992.94
6325.46
5399.54
6487.93
3941.31
6246.79
6106.03
450.099
-0.251731
5800.4
6402.62
-0.0267494
6533.29
6460.09
4458.44
3698.15
6527.52
6518.42
460.521
5248.05
6357.42
5739.14
3077.45
6451.52
6189
2053.82
6579.7
6390.3
6456.32
478.274
6203.5
3436.52
5740.01
5054.94
5344.14
6264.16
4668.9
5892.79
2755.56
6432.09
5934.96
976.404
2537.39
5363.47
6463.17
1917.67
5631.49
3937.31
5062.39
4559.13
6402.6
-0.0684455
5438.84
6358.71
0.0243893
3066.83
5699.72
6406.47
6133.63
1590.36
6464.21
2172.55
2537.82
1334.34
4281.15
6415.33
2851.46
6447.8
4353.07
6207.09
471.292
2000.68
6186.2
6466.33
1019.52
4137.96
2095.18
1586.13
6414.21
2586.89
6408.64
3267.37
4197.27
6472.6
6538.42
4818.59
6205.05
5491.9
5265.07
3566.33
2652.47
6361.04
3323.79
6483.93
904.698
6139.03
5533.52
932.799
6372.55
1932.41
514.333
4867.89
4214.75
6493.14
5445.17
6500.39
523.811
6457.76
6483.26
6376.32
5192.54
2335.98
6003.55
1418.07
0.0186572
1441.55
2298.58
6308.66
3477.66
1872.49
3341.97
6471.8
6435.69
4666.1
6476.07
6442.45
2097.01
6421.87
5371.48
5705.34
5460.79
5008.5
6479.16
526.933
5948.67
4795.66
0.028788
6491.65
2966.3
6251.47
2269.51
5962.48
6004.92
2028.48
6550.16
6334.04
6503.27
1063.7
4614.86
5996.57
1395.94
6351.87
6093.05
4014.75
2495.73
4633.54
3148.81
1549.44
4664.23
2900.47
6406.81
5156.44
486.85
2918.29
4108.3
5073.09
6204.02
1844.11
5740.7
1037.34
2963.71
3262.51
1051.27
6394.2
1071.1
5952.14
6261.13
6446.85
6428
1601.23
3956.49
505.756
2553.74
6430.56
4395.53
5725.85
3086.18
6407.08
6348.37
6289.65
5626.2
4958.44
475.054
6322.82
5835.34
6384.03
2683.14
5761.87
4506.31
939.811
4432.5
2422.4
1505.19
4813.52
5478.67
2795.98
987.651
2720.28
955.258
1406.75
2285.51
6259.63
6205.14
6211.97
6266.08
6134.44
6046.63
6054.17
6141.68
6156.54
6069.54
6092.93
6179.22
6278.83
6225.95
6247.26
6298.08
6323.5
6275.52
6313.57
6357.62
6209.87
6124.51
6164.5
6249.9
6299.07
6213.09
6269.87
6359.83
6398.62
6359.81
6416.73
6445.93
6422.41
6419.14
6461.91
6448.7
6421.43
6421.28
6439.32
6436.41
5911.66
5710.83
5719.18
5919.61
5466.49
5176.38
5185.56
5475.29
5492.77
5203.84
5231.62
5519.17
5935.48
5735.7
5760.56
5959.4
4838.66
4452.92
4461.98
4847.91
4020.07
3541.44
3549.93
4028.86
4046.29
3566.88
3592.47
4072.56
4866.33
4479.96
4507.12
4894.28
4931.89
4543.31
4587.65
4978.85
4107.59
3626.75
3669.64
4150.69
4204.01
3720.98
3780.97
4265.57
5037.49
4643.23
4705.43
5104.52
5991.34
5793.67
5834.76
6031.13
5554.6
5269.26
5317.34
5599.04
5652.24
5376.62
5449.93
5713.11
6078.47
5883.23
5938.84
6132.78
3109.11
2742.85
2750.63
3117.18
2358.21
1956.3
1962.86
2365.53
2380.64
1976.39
1997.34
2403.91
3133.65
2766.62
2791.07
3158.7
1538.97
1108.85
1112.89
1544.41
669.21
223.727
224.564
671.684
676.769
226.272
228.879
684.552
1555.62
1121.2
1133.99
1572.94
1596.76
1151.43
1173.75
1627.6
724.657
242.103
248.022
743.4
1665.84
1201.14
1233.91
1711.24
3192.39
2824.23
2866.33
3234.66
2435.9
2026.32
2064.37
2477.47
2530.04
2113.44
2176.28
2594.72
3284.87
2917.41
2976.76
3344.02
6446.76
6450.92
6457.35
6452.79
6467.49
6513.21
6524.93
6476.7
6482.65
6529.27
6521.96
6485.05
6457.71
6462.46
6466.06
6461.25
6479.3
6469.84
6494.3
6499.19
6407.1
6313.6
6341.42
6428.46
6451.16
6367.57
6391.31
6470.92
6517.2
6520.02
6525.51
6528.67
6539.24
6527.13
6520.42
6555.22
6478.96
6407.89
6414.14
6488.91
6486.2
6411.97
6404.72
6472.42
6562.35
6513.35
6502.83
6554.34
6463.26
6468.07
6468.47
6463.75
6486.38
6520.35
6519.16
6486.04
6484.05
6517.21
6508.59
6479.63
6462.84
6467.35
6464.9
6460.51
6178.14
5984.53
6016.53
6210.72
5762.32
5509.74
5533.56
5795.06
5825.54
5557.78
5582.5
5850.5
6245.78
6048.51
6076.33
6273.22
5154.44
4755
4788.61
5183.2
4317.8
3831.58
3867.37
4355.69
4397.12
3904.93
3943.3
4434.34
5209.59
4823.18
4852.74
5232.61
5246.74
4866.94
4875.51
5255.4
4454.66
3966.8
3979.32
4464.24
4465.86
3983.76
3981
4459.79
5256.76
4877.05
4871.66
5249.91
6285.57
6096.07
6107.36
6297.49
5867.55
5604.52
5602.74
5876.9
5879.25
5593.6
5584.05
5874.2
6307.71
6111.1
6108.19
6299.49
3394.31
3026.21
3061.68
3430.43
2643.45
2225.34
2253.86
2672.74
2700.37
2279.03
2300.23
2724.68
3469.75
3100.63
3130.67
3505.45
1749.62
1262.85
1284.67
1777.07
758.538
252.557
255.425
768.761
778.732
257.996
260.144
787.197
1806.54
1309.21
1334.08
1836.36
1850.73
1345.34
1346.38
1860.94
792.865
261.669
262.45
795.155
794.307
262.463
261.772
791.25
1856.03
1335.76
1328.47
1850.91
3525.7
3141.63
3148.78
3537.43
2743.37
2316.06
2324.79
2753.92
2754.43
2324.98
2316.44
2745.34
3542.84
3151.56
3149.93
3542.42
6470.12
6489.82
6461.22
6454.18
6437.16
6434.18
6411.05
6421.07
6520.61
6476.22
6432.23
6461.63
6449.05
6381.02
6324.83
6389.97
6341.39
6272.59
6230.16
6302.09
6421.39
6390.16
6354.96
6390.63
6366.84
6327.25
6306.8
6349.31
6271.24
6196.95
6172.48
6248.49
6233.58
6156.47
6148.62
6226.29
6337.82
6293.31
6286.49
6332.23
6271.77
6092.93
6025.56
6207.68
5854.94
5567.75
5506.09
5791.83
5735.98
5450.36
5404.39
5689.49
6154.94
5970.21
5924.65
6111.19
5226.6
4853.35
4791.57
5169.01
4433.36
3959.62
3897.65
4366.71
4311.78
3842.64
3793.32
4265.38
5116.03
4737.17
4691.64
5071.1
5034.93
4655.08
4627.69
5007.82
4228.05
3752.66
3722.25
4199.77
4180.91
3702.19
3692.18
4171.37
4989.81
4609.49
4600.29
4980.72
6076.43
5888.5
5861.63
6050.61
5652.6
5367.79
5340.49
5625.2
5607.1
5322.41
5313.29
5598
6033.57
5843.88
5834.95
6025.06
3530.58
3137.96
3080.73
3489.93
2718.32
2292.2
2229.45
2663.43
2611.01
2177.95
2136.74
2566.39
3423.58
3026.25
2975.93
3360.28
1827.51
1320.85
1278.21
1767.81
783.259
259.633
255.308
767.077
750.215
250.389
245.744
735.305
1722.28
1244.34
1217.89
1686.68
1659.5
1197.64
1182.95
1639.8
723.317
241.856
238.916
714.43
708.617
236.974
236.02
705.788
1627.04
1173.43
1168.81
1620.85
3315.34
2935.28
2905.41
3283.51
2530.48
2104.62
2081.03
2503.71
2486.14
2065.64
2058.15
2477.58
3263.05
2885.99
2876.57
3253.13
6045.93
5910.91
3540.65
5996.19
3108.35
3285.22
223.649
6436.32
0.00303578
6443.46
6217.05
6299.17
6447.37
6162.58
3522.95
3813.83
6261.42
0.00618441
3376.64
251.041
3571.82
6461.67
0.0500315
6363.67
6459
6258.97
6317.68
5175.53
6398.67
4837.8
5069.26
1955.69
3708.35
6309.8
6291.59
6043.08
1538.46
5249.17
3335.41
6074.8
6342.66
1787.2
6495.65
6281.33
3976.83
3369.34
4911.89
0.0262043
6469.38
3540.12
-0.0581918
6345.51
2010.77
5013.53
5493.9
6133.76
6464.17
5710.06
5138.59
5107.25
4019.26
6003.9
261.199
3694.21
2742.12
1584.01
668.977
2209.79
6421.61
6107.7
3293.47
6578.59
1749.42
6466.2
6447.27
6162.38
0.0234034
5974.37
6204.49
6357.34
1736.46
6392.79
6178.93
5465.67
1813.81
3463.88
4452.08
5968.96
6454.52
6148.14
4299.83
6522.71
2357.52
6102.95
6019.47
0.0202198
5408.51
3608.52
-0.0411243
3673.03
5602.8
6460.99
6292.41
1108.47
3009.29
6375.54
753.418
3310.14
3174.46
6535.49
4251.22
5726.4
6114.63
6411.82
6464.92
6272.86
6299.62
6461.8
6147.89
3605.89
0.0256174
5596.02
6502.89
6421.89
4036.47
3411.97
6452.73
2560.36
6583
6332.53
3432.73
2065.93
6374.12
6171.88
-0.109186
6510.41
5041.24
6287.64
230.525
0.0492237
6463.25
3691
5285.01
5745.84
5240.19
6260.29
6024.26
6544.4
5857.96
2757.58
893.267
6218.05
6460.23
6060.86
5594.24
4176.01
4738.36
3691.24
6464.97
5535.76
2308.92
5772.62
673.893
4242.3
1767.92
3709.33
4428.96
5022.79
5926.55
2628.17
0.00349875
3252.2
6373.08
6105.16
5578.75
5427.97
6413.47
6092.72
6463.22
5347.21
4524.12
6462.45
6187.72
6049.46
2552.77
6325.56
1845.43
6466.34
6193.4
1944.73
1252.68
3557.34
2890.79
6193.22
6460.21
6443.01
235.931
6284.78
5482.92
5816.56
2418.77
6402.53
5243.53
716.227
5914.66
889.997
6460.04
-0.0697046
4469.84
6240.58
4453.71
6320.38
3124.35
1755.45
5776.1
6429
6391.93
3786.4
6053.9
6437.23
6234.35
-0.0677052
2086.44
3641.21
3544.65
3147.55
2726.27
5619.78
5156.14
964.017
6283.34
5909.44
6400.97
6400.6
3693.89
2309.29
6383
6335.56
225.306
6080.22
1986.75
2928.32
1142.11
6287.64
6280.44
3112.14
5327.29
6409.45
6271.65
5829.7
6455.77
6556.98
3749.4
4089.01
6411.54
4029.85
6104.77
5243.56
6439.34
5722
446.959
6186.65
6377.93
4651.76
6040.05
4577.48
6143.45
224.041
4490.07
6274.78
4268.93
5946.43
6303.2
2372.09
1847.09
789.083
3956.72
6476.78
6262.09
5384.92
6381.35
6443.37
1116.5
3258.32
6530.32
2806.54
3653.02
6032.7
4376.97
6455.77
1914.22
6468.08
5051.89
-0.134047
6432.64
5216.52
3578.59
1848.54
6447.81
245.005
3517.01
6455.41
6339.49
2159.32
6449.89
4879.1
3312.92
239.367
6486.65
6207.69
495.944
3538.99
5207.27
6374.11
6137.14
6010.27
2867.93
5381.46
2119.59
3703.59
5392.21
6494.85
6489.03
2575.97
3163.36
5876.48
1325.32
3647.17
6152.67
1672.11
4614.29
6100.11
3145.1
4375.63
6327.75
6115.26
6215.56
5624.6
2786.7
1884.35
1027.41
5439.31
5193.53
5214.59
689.479
6534.59
260.993
5179.87
6503.44
4855.95
6138.37
5418.18
6085.38
6474.09
6246.48
6111.1
4842.18
989.795
6170.16
3080.6
6527.74
4706.82
227.462
2674.66
4541.19
4744.1
5589.59
6194.16
899.995
4915.71
6110.13
4081.94
1985.91
5868.78
5714.01
6487.03
6354.74
5469.84
942.221
-0.0132962
3212.48
6461.88
6474.79
1563.5
5860.07
6408.83
5645.36
0.0236077
6210.07
6259.15
6332.09
3494.96
6227.71
5824.71
6480.07
2041.06
3849.22
6421.03
6471.14
4456.37
5865.18
6461.39
6507.82
4023.41
5840.87
2088.19
6463.46
6568.81
4953.93
2203
5403.08
3213.3
4466.01
6451.28
773.874
5679.5
2835.11
6377.2
6225.6
6435.78
1186.8
6430.54
6421.24
6327.92
5291.97
6386.66
6459.66
6400.83
5897.56
505.203
3412
4866.46
4860.19
6439.83
1968.72
2502.27
5376.22
6467.28
1892.19
5312.45
3795.05
6240.95
1958.75
1549.27
3812.23
2233.77
2397.52
3442.78
6451.22
-0.0685936
6004.49
1011.88
6305.94
6254.36
1541
6469.23
6212.44
4979.88
0.028075
4295.63
3838.15
6092.69
2055.51
3885.86
5648.77
6413.75
3872.88
1474.54
4331.45
254.046
2734.87
6475.9
2745.75
1355.04
2057.44
2360.94
1375.77
3983.28
4668.11
2737.92
3150.74
3449.39
5834.12
4973.32
5810.83
6472.78
5937.82
6380.07
6412.1
6350.13
6199.74
4805.74
3771.78
3916.96
5985.67
2936.26
1620.26
6304.85
6470.8
3969.02
6491.23
6229.92
4170.48
3335.98
5446.83
6463.69
2599.94
2952.51
1110.36
6524.53
670.133
795.068
2977.3
1611.27
6473.97
6166.9
4210.46
5944.02
6524.29
6235.69
6516.86
5681.72
5152.98
243.689
0.0268258
1341.19
6262.69
4233.75
5910.14
2044.12
2968.94
6485.08
5006.88
4673.45
2875.68
3543.34
2014.4
6087.31
5916.35
1325.86
6293.26
5345.49
2632.66
6424.82
6480.5
6228.14
448.619
3010.75
2454.17
452.025
5069.95
1841.55
6429.68
256.786
6001.01
6412.23
1066.3
5411.24
6505.25
6364.4
5336.31
910.314
4615
5354.25
6463.69
2686.85
3982.45
924.349
4667.14
4446.26
3925.21
4660.94
457.231
262.201
6547.12
4584.48
3597.77
1296.41
1509.36
4679.18
6507.22
5996.63
705.521
6337.96
6454.24
6527.96
6173.14
6472.36
3343.12
2101.3
2901.41
4877.16
6509.45
5504.85
6381.54
6491.97
5747.09
6000.91
3052.94
6520.13
5878.96
6291.4
6526.59
6127.57
5570.1
6540.11
6413.61
3136.45
3490.06
6491.04
3104.24
6354.09
6422.01
483.811
2872.92
3540.88
6240.06
2967.68
1043.47
5221.97
6457.41
4338.14
525.11
6539.68
6481.7
1070.9
6417.58
1645.79
6453.76
5288.74
6458.55
2087.35
4189.39
6445.65
1340.81
6237.62
4662.42
6545.72
6340.18
6265.51
1023.74
733.74
6410.48
3053.39
5448.82
5813.25
1216.81
2560.82
2755.48
6473.73
5575.7
2946.14
4058.32
5851.63
6437.37
790.429
5736.3
6521.14
4492.39
3974.24
6475.81
1687.6
5980.89
5669.85
6463.46
4189.16
0.0108799
2142.94
4564.18
6365.34
1952.94
262.55
4127.91
6367.92
259.154
5545.63
2166.3
4401.31
758.548
6461.99
2180.72
6279.75
6285.8
5196.6
4672.23
5731.45
3336.3
3463.28
5738.59
5762.78
2961.48
1330.08
6299.21
6478.75
4763.29
6000.39
6483.47
2894.42
5778.81
1339.9
5859.8
3927.81
6391.52
5045.44
6463.98
6415.04
5062.38
6490.54
711.143
3532.4
2290.2
6297.49
4643.71
4530.24
5180.1
2547.31
5521.45
5749.43
4791.99
5744.37
4419.78
5169.27
5974.68
2688.8
1822.98
4847.59
6151.57
2101.82
1061.41
2391.22
4617.45
5597.15
3512.96
2636.34
1207.04
942.157
2777.77
6180.18
5615
1260.27
5464.77
6502.22
4771.73
6557.93
5521.67
5341.98
2820.26
520.358
4336.39
1862.58
5990.38
6517.43
4599.43
998.546
6464.49
2927.99
6439.17
0.0289356
6117.27
949.863
2707.35
5067.54
6463.59
1177.56
2528.9
5251.9
6455.01
2266.88
6150.15
2493.79
2476.77
1791.53
5607
4647.42
6465.23
6285.63
6189.71
6464
4659.81
680.318
3869.54
1127.02
6028.27
2844.15
5905.41
2544.28
2455.41
1050.52
2001.24
1161.97
6163.43
6178.82
3462.43
262.156
2935.62
1168.38
6560.54
4118.76
257.617
5257.07
4158.06
6482.1
6355
5721.64
1584.39
3043.65
6466.27
6513.49
2957.44
1595.94
2658.24
6041.01
5598.11
6193.12
4245.44
6481.03
2240.01
4189.54
6508.82
6487.03
2954.26
1058.51
1402.43
6496.51
3695.96
6258.5
1068.83
1763.13
4203.91
2544.8
1435.28
6493.99
252.86
1273.49
5162.08
6447.29
763.684
3710.95
6508.61
6439.98
728.926
3248.8
2274.16
6202.76
2326.51
6422.08
1856.5
3286.4
5049.28
6205.47
3271.91
1858.71
1848.42
5935.77
1589.68
6405.06
4391.97
5722.41
2326.01
2321.43
3938.22
6484.54
6423.95
6250.18
6464.45
3256.84
3316.61
4212.75
4215.05
237.82
6417.03
5254.38
6330.76
5476.89
6301.43
5141.59
5588.98
2679.77
3330.06
6468.47
6131.95
511.195
6486.91
517.145
6464.55
5813.36
6524.12
6342.83
5776.66
938.416
5877.69
6110.37
2516.84
521.93
236.379
6525.11
4484.75
5689.73
6486.74
6374.87
2202.25
525.256
5718.46
6348.97
4447.56
1743.72
4463.81
4875.22
3067.74
4995.73
6546.42
6183.65
4997.68
5330.3
2773.67
5021.62
6357.31
5426.2
6551.47
2735.67
6462.45
977.883
6475.48
961.709
5838.86
6505.05
3816.93
5092.5
6063.22
6499.08
6487.75
1632.58
471.47
1579.21
2072.33
5553.12
3339.21
3343.51
1853.31
6062.41
2321.76
4887.17
3389.08
4850.88
5516.28
526.819
6454.67
526.66
6418.57
6310.67
6102.71
4418.57
5873.12
4841.15
2156.15
4872.1
5020.24
4460.52
2750.98
3151.27
1703.35
2482.68
5352.98
2507.89
793.002
5071.38
1331.77
3736.16
5072.99
1535.33
6268.64
5538.3
2354.12
1565.04
6236.47
5198.34
2713.08
5739.77
3118.88
5742.83
6361.15
6058.65
6309.78
5823.55
247.993
1454.41
1430.44
2320.06
1648.76
5461.64
6023.76
783.198
6334.27
4796.5
3297.93
1323.45
2091.79
3145.72
1346.82
2749.85
794.44
6119.75
4822.59
4398.66
5988.35
1604.69
6067.98
1597.15
6212.79
4035.37
6197.28
2259.95
240.263
6457.68
3996.56
6436.31
2552.58
1795.29
2552.82
6450.34
6428.91
6408.19
4136.3
6229.01
4082
2270.27
6289.1
4984.18
5316.76
3108.93
3172.19
2691.92
1396.45
6320.66
6371.62
6316.14
6258.87
491.023
3128.73
6329.9
5961.97
3286.96
483.151
6317.32
3967.41
1298.86
3948.01
5944.53
3230.36
775.767
5655.27
5599.47
4175
1623.16
4986.63
4603.79
5711.54
5946.24
2060.94
4932.44
5601.46
5838.35
510.964
500.58
4287.44
4713.29
4640.24
4212.75
5873.91
5637.72
4823.69
4805.63
3097.56
5488.88
477.248
3077.47
5470.76
2450.25
473.365
2397.22
1527.16
2587.66
3000.1
1485.97
706.844
1170.53
2480.78
2880.08
742.424
1230.28
1189.63
1413.11
718.485
2919.02
1401.89
2515.94
2294.85
2278.32
6353.43
6346.03
6349.81
6356.73
6328.59
6300.5
6305.91
6333.19
6342.55
6316.98
6333.64
6356.39
6363.95
6357.77
6369.39
6374.74
6388.63
6384.49
6402.4
6405.01
6374.5
6355.43
6384.3
6397.07
695.107
232.4
236.828
708.482
6455.42
6459.25
6449
6446.79
6437.07
6437.28
6425.61
6427.2
6418.19
6415.07
6406.74
6410.91
6407.07
6392.15
6378.33
6396.49
6389.35
6369.1
6364.76
6385.81
6405.97
6401.18
6398.45
6403.69
6270.18
6246.93
6248.43
6271.88
6219.69
6188.46
6190.03
6221.22
6224.36
6193.27
6198.54
6229.44
6274.89
6251.48
6256.36
6279.55
6153.11
6113.53
6115.18
6154.72
6069.62
6021.33
6023.03
6071.3
6074.76
6026.44
6032.14
6080.4
6158.06
6118.6
6124.14
6163.49
5954.61
5864.77
5866.5
5956.33
5764.37
5653.23
5655.02
5766.13
5769.67
5658.65
5664.75
5775.63
5959.88
5869.99
5875.84
5965.66
5531.07
5397.62
5399.51
5532.92
5252.58
5095.71
5097.67
5254.51
5258.42
5101.63
5108.3
5265
5536.64
5403.34
5409.78
5542.91
4926.85
4745.96
4747.92
4928.82
4553.08
4348.35
4350.26
4555.02
4558.94
4354.12
4360.61
4565.52
4932.79
4751.88
4758.54
4939.49
4131.91
3903.95
3905.81
4133.8
3664.63
3414.07
3415.91
3666.46
3670.19
3419.7
3425.88
3676.41
4137.59
3909.56
3915.86
4143.99
4303
4072.18
4100.4
4331.68
4362.36
4130.97
4163.75
4395.14
5111.12
4928.13
4959.97
5143.37
4731.3
4522.33
4551.67
4761.85
4794.33
4582.58
4615.02
4828.18
5177.56
4994.68
5034.14
5212.93
5698.46
5572.6
5602.66
5726.39
5434.28
5280.27
5313.99
5467.05
5503.22
5350.64
5391.34
5543.45
5756.39
5635.39
5669.68
5787.53
5975.38
5869.91
5899.57
6004.53
3197.08
3018.66
3020.46
3198.89
2835.53
2647.76
2649.49
2837.3
2840.97
2653.08
2658.92
2846.93
3202.54
3024.16
3030.21
3208.65
2455.44
2258.71
2260.33
2457.12
2057.76
1852.82
1854.24
2059.29
2062.46
1857.18
1861.97
2067.61
2460.61
2263.67
2269.12
2466.28
1644.16
1432.11
1433.26
1645.45
1217.05
999.398
1000.22
1218.05
1220.11
1001.93
1004.71
1223.45
1648.13
1435.65
1439.52
1652.5
779.583
558.07
558.537
780.232
335.334
111.862
111.957
335.616
336.197
112.145
112.459
337.142
781.575
559.503
561.072
783.757
1768.29
1541.25
1560.78
1790.98
1815.49
1582.05
1604.87
1841.41
2614.41
2414.39
2444.56
2643.44
2206.54
1990.55